TITLE     = ""
VARIABLES = "log_1_0(h)"
"log_1_0(Option 3b)"
"Time (s)"
ZONE T="Overflow P=2"
 STRANDID=0, SOLUTIONTIME=0
 I=5, J=1, K=1, ZONETYPE=Ordered
 DATAPACKING=POINT
 DT=(SINGLE SINGLE SINGLE )
 -9.0645664930343628E-001 -3.3974549770355225E+000 1.8696999549865723E-001
 -1.1760913133621216E+000 -3.1269695758819580E+000 5.5290997028350830E-001
 -1.4603224992752075E+000 -3.2629659175872803E+000 2.6205999851226807E+000
 -1.7526428699493408E+000 -3.6312150955200195E+000 1.6403999328613281E+001
 -2.0492353439331055E+000 -4.0402383804321289E+000 1.0150000000000000E+002
ZONE T="Overflow P=4"
 STRANDID=0, SOLUTIONTIME=0
 I=5, J=1, K=1, ZONETYPE=Ordered
 DATAPACKING=POINT
 DT=(SINGLE SINGLE SINGLE )
 -1.1760913133621216E+000 -3.1799914836883545E+000 1.2757999897003174E+000
 -1.4603224992752075E+000 -3.2355952262878418E+000 5.9040999412536621E+000
 -1.7526428699493408E+000 -3.4374506473541260E+000 3.2823001861572266E+001
 -2.0492353439331055E+000 -3.7269067764282227E+000 3.0279000854492188E+002
 -2.3480253219604492E+000 -4.1377978324890137E+000 2.0385000000000000E+003
ZONE T="Overflow P=1"
 STRANDID=0, SOLUTIONTIME=0
 I=5, J=1, K=1, ZONETYPE=Ordered
 DATAPACKING=POINT
 DT=(SINGLE SINGLE SINGLE )
 -1.1760913133621216E+000 -3.0449922084808350E+000 6.9688999652862549E-001
 -1.4603224992752075E+000 -3.2027723789215088E+000 3.8134000301361084E+000
 -1.7526428699493408E+000 -3.7590837478637695E+000 2.3409999847412109E+001
 -2.0492353439331055E+000 -4.5228261947631836E+000 1.1966999816894531E+002
 -2.3480253219604492E+000 -5.3401083946228027E+000 7.8630999755859375E+002
ZONE T="Overflow P=2"
 STRANDID=0, SOLUTIONTIME=0
 I=5, J=1, K=1, ZONETYPE=Ordered
 DATAPACKING=POINT
 DT=(SINGLE SINGLE SINGLE )
 -1.1760913133621216E+000 -3.1269695758819580E+000 9.0086001157760620E-001
 -1.4603224992752075E+000 -3.2629659175872803E+000 3.9363999366760254E+000
 -1.7526428699493408E+000 -3.6312150955200195E+000 2.4638000488281250E+001
 -2.0492353439331055E+000 -4.0402383804321289E+000 1.7096000671386719E+002
 -2.3480253219604492E+000 -4.4576945304870605E+000 1.2188000488281250E+003
ZONE T="Overflow P=0"
 STRANDID=0, SOLUTIONTIME=0
 I=5, J=1, K=1, ZONETYPE=Ordered
 DATAPACKING=POINT
 DT=(SINGLE SINGLE SINGLE )
 -1.1760913133621216E+000 -2.5336289405822754E+000 6.9288998842239380E-001
 -1.4603224992752075E+000 -2.4613122940063477E+000 4.3543000221252441E+000
 -1.7526428699493408E+000 -2.5825016498565674E+000 2.4665000915527344E+001
 -2.0492353439331055E+000 -2.8167150020599365E+000 1.3689999389648437E+002
 -2.3480253219604492E+000 -3.1007907390594482E+000 1.3900999755859375E+003
