VARIABLES = "log<sub>10</sub>(h)","log<sub>10</sub>( Entropy Error )"
ZONE T = "P=0 xflow"
-0.539591	-2.567933775
-0.840621	-2.40318671
-1.14165	-2.375470678
-1.44268	-2.418537681
-1.74371	-2.586205354
-2.04474	-2.832527933
-2.34577	-3.114148657


ZONE T = "P=1 xflow"
-0.840621	-2.418880064
-1.14165	-2.858796577
-1.44268	-3.244317983
-1.74371	-3.87218119
-2.04474	-4.5682496
-2.34577	-5.270387934
-2.6468	-5.967363763


ZONE T = "P=2 xflow"
-1.01671	-2.933763239
-1.31774	-3.396426114
-1.61877	-4.261934568
-1.9198	-5.12818809
-2.22083	-6.041788825
-2.52186	-6.998596697
-2.82289	-7.973458515


ZONE T = "P=3 xflow"
-1.14165	-3.162932831
-1.44268	-4.063306578
-1.74371	-5.124469156
-2.04474	-6.413606824
-2.34577	-7.553626282
-2.6468	-8.759166998


ZONE T = "P=4 xflow"
-1.23856	-3.956609704
-1.53959	-4.418820635
-1.84062	-6.328379161
-2.14165	-7.256086446
-2.44268	-8.830317768
