TITLE = "Joukowski result"
VARIABLES = "drag", "h", "Work Unit"

ZONE T="p=1 grid=quad N=3", I = 2, j=1, F=POINT
0.14121827563344,  0.0255,  104.586439
0.1290854043946,  0.0127,   384.714024

ZONE T="p=2  grid=quad N=3", I = 2, j=1, F=POINT
0.1252510025344,    0.01804,   155.705168
0.1221761108358,  0.00902,    730.33


ZONE T="p=3  grid=quad N=3", I = 2, j=1, F=POINT
0.1236788736554,  0.0139754,    330.128237
0.12204090083482,  0.006988,     2812.358134

