VARIABLES="N"	"C<sub>d</sub>"	"1/sqrt(DOF)"	"C<sub>d</sub> Error"	"Work Units"
ZONE T="Slope 2"
0	0	0.0220970869	1.86E-002	0
0	0	0.0004882813	9.10224687351475E-06	0

ZONE T="Slope 3"
0	0	0.0132582521	3.02E-003	0
0	0	0.0005859375	2.6056752059198E-07	0

ZONE T="Slope 4"
0	0	0.0132582521	3.02E-003	0
0	0	0.0005859375	1.15155662979722E-08	0

ZONE T="Slope 5"
0	0	0.0099436891	4.93E-004 0
0	0	0.0012429611	0.000000015 0

ZONE T="Slope 6"
0	0	0.0099436891	4.93E-004	0
0	0	0.0012429611	1.87939679276122E-09	0

ZONE T="Slope 8"
0	0	0.0092807765	6.47E-005	0
0	0	0.0023201941	0.000000001	0


ZONE T="Fluent Tri FV P1"
512	1.75503770E-01	4.41941738E-02	5.36041792E-02	0.00000000E+00
2048	1.41135600E-01	2.20970869E-02	1.92360092E-02	0.00000000E+00
8192	1.25303960E-01	1.10485435E-02	3.40436923E-03	0.00000000E+00
32768	1.22091870E-01	5.52427173E-03	1.92279227E-04	0.00000000E+00
131072	1.21844880E-01	2.76213586E-03	5.47107726E-05	0.00000000E+00
524288	1.21880460E-01	1.38106793E-03	1.91307726E-05	0.00000000E+00
2097152	1.21901290E-01	6.90533966E-04	1.69922737E-06	0.00000000E+00


ZONE T="Star CCM Tri FV P1"
2128	1.42176136E-01	2.16777492E-02	2.02765454E-02	0.00000000E+00
8352	1.26779898E-01	1.09422027E-02	4.88030711E-03	0.00000000E+00
33088	1.22888468E-01	5.49749371E-03	9.88876985E-04	0.00000000E+00
131712	1.22134906E-01	2.75541696E-03	2.35314845E-04	0.00000000E+00
525568	1.21984729E-01	1.37938514E-03	8.51385498E-05	0.00000000E+00
2099712	1.21954714E-01	6.90112883E-04	5.51231710E-05	0.00000000E+00


ZONE T="Fun3D Quad FV P1"
33088	1.21963239E-01	5.49749371E-03	6.36481274E-05	0.00000000E+00
131712	1.21870010E-01	2.75541696E-03	2.95807726E-05	0.00000000E+00
525568	1.21885235E-01	1.37938514E-03	1.43558726E-05	0.00000000E+00
2099712	1.21894613E-01	6.90112883E-04	4.97767263E-06	0.00000000E+00

ZONE T="Fun3D Tri FV P1"
33088	1.22470892E-01	5.49749371E-03	5.71301027E-04	0.00000000E+00
131712	1.21961529E-01	2.75541696E-03	6.19380274E-05	0.00000000E+00
525568	1.21903366E-01	1.37938514E-03	3.77492737E-06	0.00000000E+00
2099712	1.21898667E-01	6.90112883E-04	9.23872632E-07	0.00000000E+00

ZONE T="USM3D Quad FV P1"
16384	1.21917000E-01	5.52427173E-03	1.74092274E-05	0.00000000E+00
65536	1.21721000E-01	2.76213586E-03	1.78590773E-04	0.00000000E+00
262144	1.21826000E-01	1.38106793E-03	7.35907726E-05	0.00000000E+00
1048576	1.21883000E-01	6.90533966E-04	1.65907726E-05	0.00000000E+00


ZONE T="ANSLib Tri FV P1"
12288	1.28096303E-01	9.02109796E-03	6.19671199E-03	0.00000000E+00
49152	1.22739339E-01	4.51054898E-03	8.39748042E-04	0.00000000E+00

ZONE T="ANSLib Tri FV P2"
12288	1.25713459E-01	9.02109796E-03	3.81386780E-03	0.00000000E+00
49152	1.22192000E-01	4.51054898E-03	2.92409704E-04	0.00000000E+00


ZONE T="NUDT Quad WCNS-E-5 P4"
512	1.32770685E-01	4.41941738E-02	1.08466770E-02	2.22E+01
2145	1.24319501E-01	2.15916759E-02	2.39549300E-03	2.19E+02
8385	1.22174018E-01	1.09206494E-02	2.50010000E-04	1.64E+03
33153	1.21933489E-01	5.49210186E-03	9.48100000E-06	1.60E+04

ZONE T="NUDT Quad MUSCL P1"
512	1.52166449E-01	4.41941738E-02	3.02424410E-02	8.51E+00
2145	1.29446575E-01	2.15916759E-02	7.52256700E-03	8.59E+01
8385	1.23043609E-01	1.09206494E-02	1.11960100E-03	7.73E+02
33153	1.22104342E-01	5.49210186E-03	1.80334000E-04	7.34E+03


ZONE T="UTC Tri SUPG P1"
552	1.65636702E-01	4.25628265E-02	4.37371111E-02	0.00000000E+00
2128	1.41262184E-01	2.16777492E-02	1.93625931E-02	0.00000000E+00
8352	1.26768861E-01	1.09422027E-02	4.86926993E-03	0.00000000E+00
33088	1.22729764E-01	5.49749371E-03	8.30173327E-04	0.00000000E+00
131712	1.22030732E-01	2.75541696E-03	1.31141527E-04	0.00000000E+00

ZONE T="UTC Tri SUPG P2"
2128	1.30165236E-01	2.16777492E-02	8.26564563E-03	0.00000000E+00
8352	1.23092136E-01	1.09422027E-02	1.19254563E-03	0.00000000E+00
33088	1.21962466E-01	5.49749371E-03	6.28747274E-05	0.00000000E+00
131712	1.21901780E-01	2.75541696E-03	2.18882737E-06	0.00000000E+00

ZONE T="UTC Tri SUPG P3"
4728	1.22944512E-01	1.45432432E-02	1.04492123E-03	0.00000000E+00
18672	1.21972060E-01	7.31820516E-03	7.24690274E-05	0.00000000E+00
74208	1.21900900E-01	3.67091760E-03	1.30892737E-06	0.00000000E+00
295872	1.21899612E-01	1.83843410E-03	2.10273680E-08	0.00000000E+00


ZONE T="COFFEE Tri SUPG P1"
2128	1.30528810E-01	2.16777492E-02	8.62921878E-03	0.00000000E+00
8352	1.23283004E-01	1.09422027E-02	1.38341346E-03	0.00000000E+00
33088	1.22093846E-01	5.49749371E-03	1.94255155E-04	0.00000000E+00
131712	1.21920514E-01	2.75541696E-03	2.09236702E-05	0.00000000E+00
525568	1.21903176E-01	1.37938514E-03	3.58543432E-06	0.00000000E+00


ZONE T="LiU SBP Quad P1"
2145	1.55526083E-01	2.15916759E-02	3.36264922E-02	1.26E+05
8385	1.31434314E-01	1.09206494E-02	9.53472325E-03	3.33E+05
33153	1.24364941E-01	5.49210186E-03	2.46535035E-03	6.06E+06
66177	1.22513448E-01	3.88728571E-03	6.13857215E-04	4.42E+07

ZONE T="LiU SBP Quad P2"
2145	1.25804850E-01	2.15916759E-02	3.90525873E-03	1.27E+05
8385	1.20657252E-01	1.09206494E-02	1.24233857E-03	3.43E+05
33153	1.21357898E-01	5.49210186E-03	5.41692404E-04	6.00E+06
66177	1.21737831E-01	3.88728571E-03	1.61760063E-04	5.33E+07

ZONE T="LiU SBP Quad P3"
2145	1.31599365E-01	2.15916759E-02	9.69977452E-03	1.29E+05
8385	1.22343348E-01	1.09206494E-02	4.43757680E-04	3.49E+05
33153	1.21739497E-01	5.49210186E-03	1.60093936E-04	7.55E+06
66177	1.21776646E-01	3.88728571E-03	1.22944775E-04	4.06E+07

ZONE T="LiU SBP Quad P4"
2145	1.25035362E-01	2.15916759E-02	3.13577099E-03	8.20E+04
8385	1.20287631E-01	1.09206494E-02	1.61196015E-03	9.59E+05
33153	1.21466524E-01	5.49210186E-03	4.33066926E-04	5.90E+06
66177	1.21855945E-01	3.88728571E-03	4.36455310E-05	5.82E+07


ZONE T="CARDC DG Quad P1"
1537.8700499808	0.1412182756	0.0255	1.93186849E-02	104.586439
6200.0124000248	0.1290854044	0.0127	7.18581362E-03	384.714024

ZONE T="CARDC DG Quad P2"
3072.7479215933	0.1252510025	0.01804	3.35141176E-03	155.705168
12290.9916863732	0.1221761108	0.00902	2.76520063E-04	730.33

ZONE T="CARDC DG Quad P3"
5120.0182148785	0.1236788737	0.0139754	1.77928288E-03	330.128237
20478.3144479587	0.1220409008	0.006988	1.41310062E-04	2812.358134


ZONE T="UM DG Tri P1"
3072	1.38068401E-01	1.80421959E-02	1.61688100E-02	7.19443300E-02
12288	1.27072254E-01	9.02109796E-03	5.17266300E-03	3.82909800E-01
49152	1.23068283E-01	4.51054898E-03	1.16869200E-03	2.30012800E+00
196608	1.22137945E-01	2.25527449E-03	2.38354700E-04	2.41888500E+01

ZONE T="UM DG Tri P2"
6144	1.25270300E-01	1.27577591E-02	3.37070900E-03	2.62573500E-01
24576	1.22237311E-01	6.37887954E-03	3.37720300E-04	1.66327700E+00
98304	1.21915499E-01	3.18943977E-03	1.59078000E-05	1.43420000E+01
393216	1.21900302E-01	1.59471988E-03	7.10970600E-07	1.31393500E+02

ZONE T="UM DG Tri P3"
10240	1.22477897E-01	9.88211769E-03	5.78306100E-04	8.04550300E-01
40960	1.21916144E-01	4.94105884E-03	1.65536100E-05	4.92644200E+00
163840	1.21899703E-01	2.47052942E-03	1.11824300E-07	3.28666700E+01
655360	1.21899593E-01	1.23526471E-03	2.47099199E-09	2.49048900E+02


ZONE T="MIT DG Quad P1"
2048	0.140541512	2.20970869120796E-002	1.86414016E-02	0
8192	0.127307658	1.10485434560398E-002	5.40754759E-03	0
32768	0.1230793045	5.52427172801990E-003	1.17919405E-03	0
131072	0.1221534598	2.76213586400995E-003	2.53349368E-04	0
524288	0.121957664	1.38106793200498E-003	5.75535773E-05	0

ZONE T="MIT DG Quad P2"
4608	0.124918847	1.47313912747197E-002	3.01873661E-03	0
18432	0.1221472892	7.36569563735987E-003	2.47178796E-04	0
73728	0.1219126456	3.68284781867994E-003	1.25351609E-05	0
294912	0.1219004693	1.84142390933997E-003	3.58946165E-07	0
1179648	0.121899819	9.20711954669984E-004	2.91406206E-07	0

ZONE T="MIT DG Quad P3"
8192	0.122392783	1.10485434560398E-002	4.92672593E-04	0
32768	0.1219084996	5.52427172801990E-003	8.38921489E-06	0
131072	0.121899848	2.76213586400995E-003	2.62422797E-07	0
524288	0.1218997594	1.38106793200498E-003	3.50951906E-07	0
2097152	0.1218999304	6.90533966002488E-004	1.80050298E-07	0

ZONE T="MIT DG Quad P4"
12800	0.1219647688	8.83883476483184E-003	6.46584224E-05	0
51200	0.1219002377	4.41941738241592E-003	1.27285094E-07	0
204800	0.1218997344	2.20970869120796E-003	3.75970906E-07	0
819200	0.1218998677	1.10485434560398E-003	2.42713118E-07	0


ZONE T="UM DG MOESS P1"
1.40E+03	1.32977151E-01	2.67165843E-02	1.11E-02	7.93E-02
2.02E+03	1.24204659E-01	2.22552174E-02	2.31E-03	4.13E-01
2.08E+03	1.23678061E-01	2.19317232E-02	1.78E-03	1.05E+00
2.02E+03	1.23214956E-01	2.22552174E-02	1.32E-03	1.58E+00
2.01E+03	1.23325619E-01	2.23216510E-02	1.43E-03	2.07E+00
2.04E+03	1.23042900E-01	2.21566698E-02	1.14E-03	2.45E+00
2.04E+03	1.23188159E-01	2.21403721E-02	1.29E-03	2.76E+00
2.04E+03	1.23188159E-01	2.21403721E-02	1.29E-03	2.77E+00
3.17E+03	1.22650991E-01	1.77583201E-02	7.51E-04	3.17E+00
4.04E+03	1.22420180E-01	1.57426642E-02	5.21E-04	3.87E+00
4.01E+03	1.22414183E-01	1.57956006E-02	5.15E-04	4.78E+00
3.95E+03	1.22349194E-01	1.59030955E-02	4.50E-04	5.70E+00
3.95E+03	1.22370196E-01	1.59030955E-02	4.71E-04	6.61E+00
3.97E+03	1.22340378E-01	1.58730159E-02	4.41E-04	7.47E+00
3.97E+03	1.22340378E-01	1.58730159E-02	4.41E-04	7.48E+00
5.39E+03	1.22214643E-01	1.36234219E-02	3.15E-04	8.52E+00
7.61E+03	1.22082122E-01	1.14602361E-02	1.83E-04	1.03E+01
7.84E+03	1.22070581E-01	1.12924085E-02	1.71E-04	1.32E+01
7.88E+03	1.22045389E-01	1.12622896E-02	1.46E-04	1.63E+01
7.94E+03	1.22060758E-01	1.12217968E-02	1.61E-04	1.95E+01
7.92E+03	1.22049131E-01	1.12366644E-02	1.50E-04	2.26E+01
7.92E+03	1.22049131E-01	1.12366644E-02	1.50E-04	2.26E+01
1.25E+04	1.21991100E-01	8.96113471E-03	9.15E-05	2.63E+01
1.57E+04	1.21966026E-01	7.98875973E-03	6.64E-05	3.58E+01
1.58E+04	1.21961374E-01	7.95305645E-03	6.18E-05	4.64E+01
1.58E+04	1.21953971E-01	7.96212666E-03	5.44E-05	5.69E+01
1.57E+04	1.21957617E-01	7.97122797E-03	5.80E-05	6.75E+01
1.57E+04	1.21955875E-01	7.98646642E-03	5.63E-05	7.83E+01
1.57E+04	1.21955875E-01	7.98646642E-03	5.63E-05	7.84E+01
2.44E+04	1.21933099E-01	6.40709787E-03	3.35E-05	9.55E+01
3.11E+04	1.21925764E-01	5.67148286E-03	2.62E-05	1.23E+02
3.14E+04	1.21922636E-01	5.63946638E-03	2.30E-05	1.60E+02
3.17E+04	1.21922970E-01	5.61461161E-03	2.34E-05	1.97E+02
3.16E+04	1.21920059E-01	5.62419378E-03	2.05E-05	2.35E+02
3.15E+04	1.21920897E-01	5.63168058E-03	2.13E-05	2.73E+02

ZONE T="UM DG MOESS P2"
2.80E+03	1.24217050E-01	1.88914779E-02	2.32E-03	7.89E-02
2.20E+03	1.23888107E-01	2.13103873E-02	1.99E-03	5.07E-01
2.17E+03	1.22692888E-01	2.14867521E-02	7.93E-04	8.33E-01
2.11E+03	1.22364836E-01	2.17906817E-02	4.65E-04	1.17E+00
2.15E+03	1.22279013E-01	2.15465207E-02	3.79E-04	1.46E+00
2.14E+03	1.22120775E-01	2.16371161E-02	2.21E-04	1.76E+00
2.12E+03	1.22050243E-01	2.16981518E-02	1.51E-04	2.07E+00
2.12E+03	1.22050243E-01	2.16981518E-02	1.51E-04	2.07E+00
2.96E+03	1.22003920E-01	1.83679590E-02	1.04E-04	2.41E+00
3.82E+03	1.21964542E-01	1.61880977E-02	6.50E-05	2.89E+00
4.00E+03	1.21955613E-01	1.58074369E-02	5.60E-05	3.49E+00
4.06E+03	1.21952398E-01	1.57018573E-02	5.28E-05	4.10E+00
4.06E+03	1.21946072E-01	1.57018573E-02	4.65E-05	4.70E+00
4.03E+03	1.21940895E-01	1.57602505E-02	4.13E-05	5.35E+00
4.03E+03	1.21940895E-01	1.57602505E-02	4.13E-05	5.37E+00
6.13E+03	1.21921316E-01	1.27702361E-02	2.17E-05	6.16E+00
7.84E+03	1.21913788E-01	1.12967310E-02	1.42E-05	7.40E+00
8.05E+03	1.21910087E-01	1.11483344E-02	1.05E-05	8.93E+00
7.91E+03	1.21910879E-01	1.12409231E-02	1.13E-05	1.05E+01
7.86E+03	1.21908067E-01	1.12794709E-02	8.48E-06	1.20E+01
7.87E+03	1.21909688E-01	1.12751682E-02	1.01E-05	1.36E+01
7.87E+03	1.21909688E-01	1.12751682E-02	1.01E-05	1.36E+01
1.22E+04	1.21903979E-01	9.03876908E-03	4.39E-06	1.56E+01
1.55E+04	1.21902698E-01	8.04361815E-03	3.11E-06	1.89E+01
1.57E+04	1.21902501E-01	7.97426868E-03	2.91E-06	2.30E+01
1.59E+04	1.21902101E-01	7.93500864E-03	2.51E-06	2.72E+01
1.58E+04	1.21901745E-01	7.96819073E-03	2.15E-06	3.16E+01
1.56E+04	1.21901781E-01	8.00794783E-03	2.19E-06	3.61E+01
1.56E+04	1.21901781E-01	8.00794783E-03	2.19E-06	3.61E+01
2.46E+04	1.21900615E-01	6.37188302E-03	1.02E-06	4.13E+01
3.13E+04	1.21900184E-01	5.65052920E-03	5.93E-07	5.06E+01
3.12E+04	1.21900088E-01	5.65920897E-03	4.97E-07	6.22E+01
3.15E+04	1.21899994E-01	5.63865946E-03	4.03E-07	7.53E+01
3.14E+04	1.21899992E-01	5.64674433E-03	4.02E-07	9.08E+01
3.15E+04	1.21899969E-01	5.63543522E-03	3.79E-07	1.07E+02

ZONE T="UM DG MOESS P3"
4.67E+03	1.23370336E-01	1.46332759E-02	1.47E-03	7.88E-02
3.55E+03	1.22702581E-01	1.67836272E-02	8.03E-04	7.21E-01
2.66E+03	1.22409385E-01	1.93891684E-02	5.10E-04	1.55E+00
2.13E+03	1.22335648E-01	2.16675695E-02	4.36E-04	2.27E+00
2.22E+03	1.22069756E-01	2.12238180E-02	1.70E-04	2.74E+00
2.10E+03	1.21919300E-01	2.18217890E-02	1.97E-05	3.13E+00
2.22E+03	1.21989271E-01	2.12238180E-02	8.97E-05	3.52E+00
2.22E+03	1.21989271E-01	2.12238180E-02	8.97E-05	3.53E+00
3.21E+03	1.21972138E-01	1.76501127E-02	7.25E-05	3.98E+00
4.12E+03	1.21932699E-01	1.55794238E-02	3.31E-05	4.66E+00
4.13E+03	1.21924446E-01	1.55605511E-02	2.49E-05	5.45E+00
4.15E+03	1.21921322E-01	1.55230105E-02	2.17E-05	6.22E+00
4.26E+03	1.21908260E-01	1.53212853E-02	8.67E-06	7.03E+00
4.17E+03	1.21911595E-01	1.54857403E-02	1.20E-05	7.86E+00
4.17E+03	1.21911595E-01	1.54857403E-02	1.20E-05	7.89E+00
5.79E+03	1.21904400E-01	1.31419775E-02	4.81E-06	8.86E+00
7.66E+03	1.21903688E-01	1.14257736E-02	4.10E-06	1.02E+01
7.99E+03	1.21902716E-01	1.11873342E-02	3.13E-06	1.20E+01
8.08E+03	1.21903104E-01	1.11248540E-02	3.51E-06	1.38E+01
7.94E+03	1.21901457E-01	1.12225035E-02	1.87E-06	1.55E+01
8.22E+03	1.21900604E-01	1.10297099E-02	1.01E-06	1.73E+01
8.22E+03	1.21900604E-01	1.10297099E-02	1.01E-06	1.74E+01
1.26E+04	1.21900581E-01	8.90517497E-03	9.90E-07	1.98E+01
1.57E+04	1.21900038E-01	7.97325472E-03	4.47E-07	2.36E+01
1.60E+04	1.21899886E-01	7.91063985E-03	2.95E-07	2.82E+01
1.61E+04	1.21899634E-01	7.87133208E-03	4.36E-08	3.36E+01
1.62E+04	1.21899666E-01	7.86402689E-03	7.51E-08	3.99E+01
1.61E+04	1.21899652E-01	7.88845698E-03	6.15E-08	4.69E+01
1.61E+04	1.21899652E-01	7.88845698E-03	6.15E-08	4.70E+01
2.43E+04	1.21899654E-01	6.41104678E-03	6.28E-08	5.51E+01
3.12E+04	1.21899630E-01	5.65775956E-03	3.96E-08	6.88E+01
3.14E+04	1.21899596E-01	5.64063255E-03	5.59E-09	9.73E+01
3.18E+04	1.21899611E-01	5.60507826E-03	2.07E-08	1.33E+02
3.16E+04	1.21899616E-01	5.62811171E-03	2.56E-08	1.68E+02
3.16E+04	1.21899603E-01	5.62989530E-03	1.22E-08	2.01E+02

ZONE T="MOESS Slope 2"
0	0	2.21403721E-02	6.44E-004	0
0	0	5.63168058E-03	4.16853587059943E-05	0

ZONE T="MOESS Slope 4"
0	0	2.16981518E-02	1.51E-004	0
0	0	5.63543522E-03	6.85481127740883E-07	0

ZONE T="MOESS Slope 6"
0	0	2.12238180E-02	4.97E-005	0
0	0	5.62989530E-03	1.73017705202757E-08	0


