VARIABLES="N"	"C<sub>d</sub>"	"1/sqrt(DOF)"	"C<sub>d</sub> Error"	"Work Units" "Normalized Time (s)"

ZONE T="1 s"		
0 0 0	1	 0 1
0 0	0 1e-12	 0 1
		
ZONE T="1 min"		
0 0 0	1  0 60
0 0 0	1e-12	0  60
		
ZONE T="1 hr"		
0 0 0	1	0 3600
0 0	0 1e-12	0 3600
		
ZONE T="24 hr"		
0 0	0 1	0  86400
0 0	0 1e-12	0 86400

ZONE T="1 week"		
0 0	0 1	0  604800
0 0	0 1e-12	0 604800